[Molden Format]
[Atoms] AU
   O    1    8   0.00000000   0.00000000   0.22160669 
   H    2    1   1.43048912   0.00000000  -0.88642678 
   H    3    1  -1.43048912   0.00000000  -0.88642678 
[GTO]
    1     0
 s     6     0
   5484.671700000000       0.001831100000 
    825.234950000000       0.013950100000 
    188.046960000000       0.068445100000 
     52.964500000000       0.232714300000 
     16.897570000000       0.470193000000 
      5.799635300000       0.358520900000 
 s     3     0
     15.539616000000      -0.110777500000 
      3.599933600000      -0.148026300000 
      1.013761800000       1.130767000000 
 s     1     0
      0.270005800000       1.000000000000 
 p     3     0
     15.539616000000       0.070874300000 
      3.599933600000       0.339752800000 
      1.013761800000       0.727158600000 
 p     1     0
      0.270005800000       1.000000000000 

    2     0
 s     3     0
     18.731137000000       0.033494600000 
      2.825393700000       0.234726950000 
      0.640121700000       0.813757330000 
 s     1     0
      0.161277800000       1.000000000000 

    3     0
 s     3     0
     18.731137000000       0.033494600000 
      2.825393700000       0.234726950000 
      0.640121700000       0.813757330000 
 s     1     0
      0.161277800000       1.000000000000 

[5D]
[7F]
[9G]
[MO]
Sym  = A
Ene  = -20.56046893
Spin = Alpha
Occup = 1
    1       0.995783568515
    2       0.021962032631
    3      -0.008050656986
    4       0.000000000000
    5       0.000000000000
    6      -0.002099459660
    7      -0.000000000000
    8      -0.000000000000
    9       0.001947291075
   10       0.000118895875
   11       0.001982493173
   12       0.000118895875
   13       0.001982493173
Sym  = A
Ene  =  -1.35627667
Spin = Alpha
Occup = 1
    1       0.212437195966
    2      -0.469056929450
    3      -0.479323726979
    4      -0.000000000000
    5      -0.000000000000
    6       0.111625953770
    7       0.000000000000
    8      -0.000000000000
    9       0.060479078721
   10      -0.140155984518
   11       0.008325200769
   12      -0.140155984518
   13       0.008325200769
Sym  = A
Ene  =  -0.70998900
Spin = Alpha
Occup = 1
    1      -0.000000000000
    2       0.000000000000
    3      -0.000000000000
    4       0.505833465732
    5       0.000000000000
    6       0.000000000000
    7       0.269447160538
    8       0.000000000000
    9       0.000000000000
   10       0.263257281837
   11       0.123750383843
   12      -0.263257281837
   13      -0.123750383843
Sym  = A
Ene  =  -0.56065471
Spin = Alpha
Occup = 1
    1      -0.075895018975
    2       0.180898292808
    3       0.306774894243
    4      -0.000000000000
    5      -0.000000000000
    6       0.550568071875
    7       0.000000000000
    8      -0.000000000000
    9       0.402718547548
   10      -0.143930868652
   11      -0.080413518409
   12      -0.143930868652
   13      -0.080413518409
Sym  = A
Ene  =  -0.50138350
Spin = Alpha
Occup = 1
    1      -0.000000000000
    2       0.000000000000
    3       0.000000000000
    4      -0.000000000000
    5       0.641794479368
    6       0.000000000000
    7      -0.000000000000
    8       0.509813174073
    9       0.000000000000
   10      -0.000000000000
   11      -0.000000000000
   12       0.000000000000
   13      -0.000000000000
Sym  = A
Ene  =   0.20370245
Spin = Alpha
Occup = 0
    1      -0.084993404345
    2       0.103910797285
    3       1.181374848003
    4       0.000000000000
    5       0.000000000000
    6      -0.230579495763
    7       0.000000000000
    8       0.000000000000
    9      -0.475209102089
   10      -0.057675336898
   11      -0.992771892136
   12      -0.057675336898
   13      -0.992771892136
Sym  = A
Ene  =   0.29979831
Spin = Alpha
Occup = 0
    1      -0.000000000000
    2       0.000000000000
    3       0.000000000000
    4      -0.337537054082
    5      -0.000000000000
    6      -0.000000000000
    7      -0.823945933835
    8      -0.000000000000
    9      -0.000000000000
   10       0.041824016110
   11       1.386040541267
   12      -0.041824016110
   13      -1.386040541267
Sym  = A
Ene  =   1.05733368
Spin = Alpha
Occup = 0
    1       0.000000000000
    2      -0.000000000000
    3       0.000000000000
    4       0.102509193185
    5      -0.000000000000
    6       0.000000000000
    7       0.759143183329
    8       0.000000000000
    9       0.000000000000
   10      -0.975264987909
   11       0.483636688315
   12       0.975264987909
   13      -0.483636688316
Sym  = A
Ene  =   1.16444391
Spin = Alpha
Occup = 0
    1      -0.000000000000
    2       0.000000000000
    3      -0.000000000000
    4      -0.000000000000
    5       0.961325211015
    6      -0.000000000000
    7       0.000000000000
    8      -1.037370156994
    9       0.000000000000
   10      -0.000000000000
   11       0.000000000000
   12      -0.000000000000
   13       0.000000000000
Sym  = A
Ene  =   1.18722293
Spin = Alpha
Occup = 0
    1      -0.048768503435
    2       0.240367439252
    3      -0.168403050253
    4       0.000000000000
    5      -0.000000000000
    6      -0.706524401766
    7       0.000000000000
    8       0.000000000000
    9       0.277490122530
   10      -0.816896555510
   11       0.541552307963
   12      -0.816896555510
   13       0.541552307963
Sym  = A
Ene  =   1.21565478
Spin = Alpha
Occup = 0
    1       0.071913900088
    2      -0.453280320431
    3       0.060418369119
    4      -0.000000000000
    5      -0.000000000000
    6      -0.683896164616
    7      -0.000000000000
    8       0.000000000000
    9       1.172824143529
   10       0.572773691042
   11      -0.093944152640
   12       0.572773691042
   13      -0.093944152640
Sym  = A
Ene  =   1.37943891
Spin = Alpha
Occup = 0
    1      -0.000000000000
    2       0.000000000000
    3      -0.000000000000
    4      -1.034783153083
    5      -0.000000000000
    6      -0.000000000000
    7       1.537663354636
    8       0.000000000000
    9      -0.000000000000
   10       0.097372454625
   11      -0.911212989588
   12      -0.097372454625
   13       0.911212989588
Sym  = A
Ene  =   1.69619393
Spin = Alpha
Occup = 0
    1      -0.053845589134
    2       1.673297207814
    3      -2.761324100026
    4       0.000000000000
    5       0.000000000000
    6      -0.197949845437
    7       0.000000000000
    8      -0.000000000000
    9       0.865084926250
   10       0.468449236974
   11       0.613679967537
   12       0.468449236974
   13       0.613679967537
Sym  = A
Ene  = -20.56046893
Spin = Beta
Occup = 1
    1       0.995783568515
    2       0.021962032631
    3      -0.008050656986
    4       0.000000000000
    5       0.000000000000
    6      -0.002099459660
    7      -0.000000000000
    8      -0.000000000000
    9       0.001947291075
   10       0.000118895875
   11       0.001982493173
   12       0.000118895875
   13       0.001982493173
Sym  = A
Ene  =  -1.35627667
Spin = Beta
Occup = 1
    1       0.212437195966
    2      -0.469056929450
    3      -0.479323726979
    4      -0.000000000000
    5      -0.000000000000
    6       0.111625953770
    7       0.000000000000
    8      -0.000000000000
    9       0.060479078721
   10      -0.140155984518
   11       0.008325200769
   12      -0.140155984518
   13       0.008325200769
Sym  = A
Ene  =  -0.70998900
Spin = Beta
Occup = 1
    1      -0.000000000000
    2       0.000000000000
    3      -0.000000000000
    4       0.505833465732
    5       0.000000000000
    6       0.000000000000
    7       0.269447160538
    8       0.000000000000
    9       0.000000000000
   10       0.263257281837
   11       0.123750383843
   12      -0.263257281837
   13      -0.123750383843
Sym  = A
Ene  =  -0.56065471
Spin = Beta
Occup = 1
    1      -0.075895018975
    2       0.180898292808
    3       0.306774894243
    4      -0.000000000000
    5      -0.000000000000
    6       0.550568071875
    7       0.000000000000
    8      -0.000000000000
    9       0.402718547548
   10      -0.143930868652
   11      -0.080413518409
   12      -0.143930868652
   13      -0.080413518409
Sym  = A
Ene  =  -0.50138350
Spin = Beta
Occup = 1
    1      -0.000000000000
    2       0.000000000000
    3       0.000000000000
    4      -0.000000000000
    5       0.641794479368
    6       0.000000000000
    7      -0.000000000000
    8       0.509813174073
    9       0.000000000000
   10      -0.000000000000
   11      -0.000000000000
   12       0.000000000000
   13      -0.000000000000
Sym  = A
Ene  =   0.20370245
Spin = Beta
Occup = 0
    1      -0.084993404345
    2       0.103910797285
    3       1.181374848003
    4       0.000000000000
    5       0.000000000000
    6      -0.230579495763
    7       0.000000000000
    8       0.000000000000
    9      -0.475209102089
   10      -0.057675336898
   11      -0.992771892136
   12      -0.057675336898
   13      -0.992771892136
Sym  = A
Ene  =   0.29979831
Spin = Beta
Occup = 0
    1      -0.000000000000
    2       0.000000000000
    3       0.000000000000
    4      -0.337537054082
    5      -0.000000000000
    6      -0.000000000000
    7      -0.823945933835
    8      -0.000000000000
    9      -0.000000000000
   10       0.041824016110
   11       1.386040541267
   12      -0.041824016110
   13      -1.386040541267
Sym  = A
Ene  =   1.05733368
Spin = Beta
Occup = 0
    1       0.000000000000
    2      -0.000000000000
    3       0.000000000000
    4       0.102509193185
    5      -0.000000000000
    6       0.000000000000
    7       0.759143183329
    8       0.000000000000
    9       0.000000000000
   10      -0.975264987909
   11       0.483636688315
   12       0.975264987909
   13      -0.483636688316
Sym  = A
Ene  =   1.16444391
Spin = Beta
Occup = 0
    1      -0.000000000000
    2       0.000000000000
    3      -0.000000000000
    4      -0.000000000000
    5       0.961325211015
    6      -0.000000000000
    7       0.000000000000
    8      -1.037370156994
    9       0.000000000000
   10      -0.000000000000
   11       0.000000000000
   12      -0.000000000000
   13       0.000000000000
Sym  = A
Ene  =   1.18722293
Spin = Beta
Occup = 0
    1      -0.048768503435
    2       0.240367439252
    3      -0.168403050253
    4       0.000000000000
    5      -0.000000000000
    6      -0.706524401766
    7       0.000000000000
    8       0.000000000000
    9       0.277490122530
   10      -0.816896555510
   11       0.541552307963
   12      -0.816896555510
   13       0.541552307963
Sym  = A
Ene  =   1.21565478
Spin = Beta
Occup = 0
    1       0.071913900088
    2      -0.453280320431
    3       0.060418369119
    4      -0.000000000000
    5      -0.000000000000
    6      -0.683896164616
    7      -0.000000000000
    8       0.000000000000
    9       1.172824143529
   10       0.572773691042
   11      -0.093944152640
   12       0.572773691042
   13      -0.093944152640
Sym  = A
Ene  =   1.37943891
Spin = Beta
Occup = 0
    1      -0.000000000000
    2       0.000000000000
    3      -0.000000000000
    4      -1.034783153083
    5      -0.000000000000
    6      -0.000000000000
    7       1.537663354636
    8       0.000000000000
    9      -0.000000000000
   10       0.097372454625
   11      -0.911212989588
   12      -0.097372454625
   13       0.911212989588
Sym  = A
Ene  =   1.69619393
Spin = Beta
Occup = 0
    1      -0.053845589134
    2       1.673297207814
    3      -2.761324100026
    4       0.000000000000
    5       0.000000000000
    6      -0.197949845437
    7       0.000000000000
    8      -0.000000000000
    9       0.865084926250
   10       0.468449236974
   11       0.613679967537
   12       0.468449236974
   13       0.613679967537
