[Molden Format]
[Atoms] AU
   N    1    7   2.66213152  -0.01745909   0.00000000 
   C    2    6  -2.61652819   0.01758825   0.00000000 
   C    3    6   1.36419663   2.13770502   0.00000000 
   H    4    1   2.48371108   3.86156074   0.00000000 
   C    5    6  -1.29008658  -2.24565691   0.00000000 
   H    6    1  -2.20821495   4.07992940   0.00000000 
   C    7    6   1.33567980  -2.15517486   0.00000000 
   H    8    1   2.43217966  -3.89376330   0.00000000 
   H    9    1  -4.66738323   0.03126762   0.00000000 
   C   10    6  -1.26011693   2.26303903   0.00000000 
   H   11    1  -2.26212378  -4.04985420   0.00000000 
[GTO]
    1     0
 s     6     0
   4173.511000000000       0.001834800000 
    627.457900000000       0.013995000000 
    142.902100000000       0.068587000000 
     40.234330000000       0.232241000000 
     12.820210000000       0.469070000000 
      4.390437000000       0.360455000000 
 s     3     0
     11.626358000000      -0.114961000000 
      2.716280000000      -0.169118000000 
      0.772218000000       1.145852000000 
 s     1     0
      0.212031300000       1.000000000000 
 p     3     0
     11.626358000000       0.067580000000 
      2.716280000000       0.323907000000 
      0.772218000000       0.740895000000 
 p     1     0
      0.212031300000       1.000000000000 

    2     0
 s     6     0
   3047.524900000000       0.001834700000 
    457.369510000000       0.014037300000 
    103.948690000000       0.068842600000 
     29.210155000000       0.232184400000 
      9.286663000000       0.467941300000 
      3.163927000000       0.362312000000 
 s     3     0
      7.868272400000      -0.119332400000 
      1.881288500000      -0.160854200000 
      0.544249300000       1.143456400000 
 s     1     0
      0.168714400000       1.000000000000 
 p     3     0
      7.868272400000       0.068999100000 
      1.881288500000       0.316424000000 
      0.544249300000       0.744308300000 
 p     1     0
      0.168714400000       1.000000000000 

    3     0
 s     6     0
   3047.524900000000       0.001834700000 
    457.369510000000       0.014037300000 
    103.948690000000       0.068842600000 
     29.210155000000       0.232184400000 
      9.286663000000       0.467941300000 
      3.163927000000       0.362312000000 
 s     3     0
      7.868272400000      -0.119332400000 
      1.881288500000      -0.160854200000 
      0.544249300000       1.143456400000 
 s     1     0
      0.168714400000       1.000000000000 
 p     3     0
      7.868272400000       0.068999100000 
      1.881288500000       0.316424000000 
      0.544249300000       0.744308300000 
 p     1     0
      0.168714400000       1.000000000000 

    4     0
 s     3     0
     18.731137000000       0.033494600000 
      2.825393700000       0.234726950000 
      0.640121700000       0.813757330000 
 s     1     0
      0.161277800000       1.000000000000 

    5     0
 s     6     0
   3047.524900000000       0.001834700000 
    457.369510000000       0.014037300000 
    103.948690000000       0.068842600000 
     29.210155000000       0.232184400000 
      9.286663000000       0.467941300000 
      3.163927000000       0.362312000000 
 s     3     0
      7.868272400000      -0.119332400000 
      1.881288500000      -0.160854200000 
      0.544249300000       1.143456400000 
 s     1     0
      0.168714400000       1.000000000000 
 p     3     0
      7.868272400000       0.068999100000 
      1.881288500000       0.316424000000 
      0.544249300000       0.744308300000 
 p     1     0
      0.168714400000       1.000000000000 

    6     0
 s     3     0
     18.731137000000       0.033494600000 
      2.825393700000       0.234726950000 
      0.640121700000       0.813757330000 
 s     1     0
      0.161277800000       1.000000000000 

    7     0
 s     6     0
   3047.524900000000       0.001834700000 
    457.369510000000       0.014037300000 
    103.948690000000       0.068842600000 
     29.210155000000       0.232184400000 
      9.286663000000       0.467941300000 
      3.163927000000       0.362312000000 
 s     3     0
      7.868272400000      -0.119332400000 
      1.881288500000      -0.160854200000 
      0.544249300000       1.143456400000 
 s     1     0
      0.168714400000       1.000000000000 
 p     3     0
      7.868272400000       0.068999100000 
      1.881288500000       0.316424000000 
      0.544249300000       0.744308300000 
 p     1     0
      0.168714400000       1.000000000000 

    8     0
 s     3     0
     18.731137000000       0.033494600000 
      2.825393700000       0.234726950000 
      0.640121700000       0.813757330000 
 s     1     0
      0.161277800000       1.000000000000 

    9     0
 s     3     0
     18.731137000000       0.033494600000 
      2.825393700000       0.234726950000 
      0.640121700000       0.813757330000 
 s     1     0
      0.161277800000       1.000000000000 

   10     0
 s     6     0
   3047.524900000000       0.001834700000 
    457.369510000000       0.014037300000 
    103.948690000000       0.068842600000 
     29.210155000000       0.232184400000 
      9.286663000000       0.467941300000 
      3.163927000000       0.362312000000 
 s     3     0
      7.868272400000      -0.119332400000 
      1.881288500000      -0.160854200000 
      0.544249300000       1.143456400000 
 s     1     0
      0.168714400000       1.000000000000 
 p     3     0
      7.868272400000       0.068999100000 
      1.881288500000       0.316424000000 
      0.544249300000       0.744308300000 
 p     1     0
      0.168714400000       1.000000000000 

   11     0
 s     3     0
     18.731137000000       0.033494600000 
      2.825393700000       0.234726950000 
      0.640121700000       0.813757330000 
 s     1     0
      0.161277800000       1.000000000000 

[5D]
[7F]
[9G]
[MO]
Sym  = A
Ene  = -15.57613513
Spin = Alpha
Occup = 1
    1       0.996227946282
    2       0.025088884001
    3      -0.023571770517
    4      -0.002781545181
    5       0.000018464960
    6       0.000000000000
    7       0.007839988893
    8      -0.000052001996
    9      -0.000000000000
   10      -0.000058331096
   11      -0.000462299365
   12       0.008704854945
   13      -0.000029912806
   14       0.000000196198
   15       0.000000000000
   16       0.004725428848
   17      -0.000031655466
   18      -0.000000000000
   19       0.000071262835
   20      -0.000422567997
   21       0.011366006902
   22       0.000015024787
   23      -0.000013485332
   24      -0.000000000000
   25      -0.001447893542
   26      -0.007001566770
   27      -0.000000000000
   28       0.000128791689
   29       0.001487471550
   30       0.000081646898
   31       0.000573599717
   32      -0.008002846430
   33      -0.000155677249
   34       0.000075426866
   35      -0.000000000000
   36      -0.002140479617
   37      -0.005465386361
   38       0.000000000000
   39      -0.000256238749
   40      -0.001448102428
   41       0.000071268051
   42      -0.000422554114
   43       0.011365869311
   44       0.000015203625
   45       0.000013269364
   46       0.000000000000
   47      -0.001354499173
   48       0.007020321728
   49      -0.000000000000
   50       0.000128797871
   51       0.001487473046
   52       0.000092093178
   53       0.001103531676
   54       0.000081644338
   55       0.000573585238
   56      -0.008002680118
   57      -0.000156649858
   58      -0.000073355456
   59      -0.000000000000
   60      -0.002068137673
   61       0.005493063287
   62       0.000000000000
   63      -0.000256240930
   64      -0.001448094506
Sym  = A
Ene  = -11.28009051
Spin = Alpha
Occup = 1
    1       0.000003280796
    2      -0.000001147046
    3       0.000002460140
    4       0.000000641444
    5       0.000053646394
    6      -0.000000000000
    7      -0.000013756890
    8      -0.000837795156
    9       0.000000000000
   10      -0.000005209169
   11       0.000003588683
   12      -0.000027806775
   13      -0.000000834554
   14      -0.000206613975
   15      -0.000000000000
   16      -0.000013362955
   17       0.000731190627
   18       0.000000000000
   19       0.698131365344
   20       0.017711208697
   21      -0.011335984298
   22      -0.000070570017
   23      -0.000695925085
   24      -0.000000000000
   25       0.003738373690
   26       0.001743199052
   27       0.000000000000
   28      -0.000365105305
   29       0.000399170855
   30      -0.014848678396
   31       0.000204772032
   32      -0.005330679854
   33       0.000082842509
   34      -0.000020451147
   35       0.000000000000
   36      -0.003056765210
   37      -0.000458573062
   38      -0.000000000000
   39      -0.000088922550
   40       0.000285365705
   41      -0.710337634868
   42      -0.018006516611
   43       0.011463113700
   44       0.000061381868
   45      -0.000705050169
   46      -0.000000000000
   47      -0.003717609288
   48       0.001764455092
   49      -0.000000000000
   50       0.000365124284
   51      -0.000437860605
   52      -0.000000871037
   53      -0.000006825872
   54       0.014602440773
   55      -0.000204426773
   56       0.005320612714
   57      -0.000079685393
   58      -0.000019260535
   59      -0.000000000000
   60       0.003034871167
   61      -0.000531312189
   62      -0.000000000000
   63       0.000092445761
   64      -0.000276090262
Sym  = A
Ene  = -11.28005922
Spin = Alpha
Occup = 1
    1      -0.000377416981
    2       0.000131846571
    3      -0.000275828850
    4      -0.000032811743
    5       0.000000678541
    6       0.000000000000
    7       0.000941603562
    8      -0.000013457663
    9      -0.000000000000
   10       0.000599282665
   11      -0.000412774601
   12       0.003200322261
   13      -0.000062528402
   14      -0.000001377965
   15      -0.000000000000
   16       0.002096464030
   17      -0.000007739138
   18       0.000000000000
   19       0.710256763708
   20       0.017191189294
   21      -0.007445547461
   22      -0.000012036804
   23      -0.000482036724
   24      -0.000000000000
   25       0.000174267898
   26      -0.001610024953
   27       0.000000000000
   28      -0.000004769242
   29       0.002232645552
   30       0.014131828759
   31      -0.000017194094
   32       0.000548336664
   33      -0.000197216711
   34       0.000007247301
   35       0.000000000000
   36       0.000851288970
   37      -0.001868053002
   38      -0.000000000000
   39      -0.000203550939
   40      -0.000529730518
   41       0.698049124257
   42       0.016881609706
   43      -0.007247923783
   44      -0.000004544013
   45       0.000470000186
   46       0.000000000000
   47       0.000131317784
   48       0.001638534348
   49      -0.000000000000
   50       0.000001565584
   51       0.002225410729
   52       0.000100084592
   53       0.000786169688
   54       0.014388042044
   55      -0.000020738050
   56       0.000640832211
   57      -0.000198708984
   58      -0.000004953658
   59      -0.000000000000
   60       0.000928602036
   61       0.001847455222
   62       0.000000000000
   63      -0.000201983583
   64      -0.000534639948
Sym  = A
Ene  = -11.26562740
Spin = Alpha
Occup = 1
    1      -0.000006525737
    2      -0.000165750073
    3       0.001062342957
    4       0.000035907072
    5      -0.000000237782
    6      -0.000000000000
    7      -0.000376943131
    8       0.000002503426
    9       0.000000000000
   10       0.994466833937
   11       0.025137645237
   12      -0.019867250812
   13       0.000441119188
   14      -0.000002947566
   15      -0.000000000000
   16      -0.004748471475
   17       0.000031662452
   18       0.000000000000
   19      -0.001321594896
   20      -0.000199631801
   21      -0.001658570215
   22       0.000154325869
   23       0.000021149731
   24      -0.000000000000
   25       0.000388445769
   26       0.000506993817
   27       0.000000000000
   28       0.000023208512
   29       0.000102514830
   30       0.041070633032
   31       0.000029684836
   32       0.007405709099
   33       0.000044751311
   34      -0.000197062414
   35      -0.000000000000
   36      -0.000003086070
   37       0.003936246629
   38       0.000000000000
   39      -0.000052002711
   40       0.000767673230
   41      -0.001321653127
   42      -0.000199641502
   43      -0.001658438970
   44       0.000154026921
   45      -0.000023197190
   46      -0.000000000000
   47       0.000381612360
   48      -0.000512090587
   49      -0.000000000000
   50       0.000023209434
   51       0.000102524555
   52      -0.000340687502
   53       0.001277173069
   54       0.041066453360
   55       0.000029596847
   56       0.007405561788
   57       0.000047360763
   58       0.000196433475
   59      -0.000000000000
   60      -0.000055214086
   61      -0.003935702588
   62      -0.000000000000
   63      -0.000052010990
   64       0.000767731776
Sym  = A
Ene  = -11.25109222
Spin = Alpha
Occup = 1
    1      -0.000000107359
    2      -0.000000874201
    3       0.000008499640
    4      -0.000000430633
    5      -0.000058645107
    6       0.000000000000
    7      -0.000008226143
    8      -0.000687952572
    9       0.000000000000
   10       0.000106786648
   11       0.000005391976
   12      -0.000026675304
   13      -0.000001030227
   14      -0.000225217572
   15      -0.000000000000
   16       0.000007196850
   17       0.002851932131
   18       0.000000000000
   19      -0.014998421197
   20      -0.000945288801
   21       0.005100935382
   22       0.000136925203
   23      -0.000003901408
   24       0.000000000000
   25      -0.001718918395
   26      -0.001085262932
   27      -0.000000000000
   28      -0.000062169242
   29       0.000219091343
   30      -0.705486317186
   31      -0.017982390397
   32       0.012629140204
   33      -0.000112785403
   34      -0.000412618821
   35      -0.000000000000
   36       0.001150495208
   37       0.002522180635
   38       0.000000000000
   39      -0.000259873911
   40       0.000891240576
   41       0.015048592363
   42       0.000948759214
   43      -0.005130139494
   44      -0.000137705032
   45      -0.000002184361
   46       0.000000000000
   47       0.001715939447
   48      -0.001117201041
   49       0.000000000000
   50       0.000062099753
   51      -0.000221723929
   52       0.000000013177
   53      -0.000002100106
   54       0.703002089444
   55       0.017918253543
   56      -0.012563996520
   57       0.000106409299
   58      -0.000413074320
   59      -0.000000000000
   60      -0.001107880350
   61       0.002518362458
   62       0.000000000000
   63       0.000260916095
   64      -0.000892571139
Sym  = A
Ene  = -11.25103432
Spin = Alpha
Occup = 1
    1       0.000060640088
    2       0.000495373826
    3      -0.004813493069
    4       0.000021862910
    5      -0.000000248713
    6      -0.000000000000
    7       0.002072824028
    8      -0.000014951361
    9       0.000000000000
   10      -0.058752305746
   11      -0.003001507059
   12       0.014973996517
   13      -0.000257201686
   14       0.000001317003
   15      -0.000000000000
   16       0.006622481668
   17      -0.000039192267
   18       0.000000000000
   19      -0.014502641516
   20      -0.000996824270
   21       0.008309671007
   22       0.000211420013
   23      -0.000030327808
   24      -0.000000000000
   25      -0.003341505210
   26      -0.002575605713
   27       0.000000000000
   28       0.000019833673
   29       0.000757137333
   30       0.701837286694
   31       0.018110801121
   32      -0.018393955342
   33       0.000253853496
   34       0.000275955412
   35       0.000000000000
   36      -0.002641186001
   37      -0.005279657926
   38      -0.000000000000
   39      -0.000295634043
   40       0.000379282538
   41      -0.014448580562
   42      -0.000993436178
   43       0.008291433684
   44       0.000211318342
   45       0.000027511784
   46       0.000000000000
   47      -0.003300808621
   48       0.002615892515
   49      -0.000000000000
   50       0.000020059127
   51       0.000756345887
   52      -0.000004446123
   53       0.001177922251
   54       0.704325831554
   55       0.018174208040
   56      -0.018438231830
   57       0.000250543078
   58      -0.000280742464
   59      -0.000000000000
   60      -0.002574996943
   61       0.005322927981
   62      -0.000000000000
   63      -0.000294718187
   64       0.000376082199
Sym  = A
Ene  =  -1.27891491
Spin = Alpha
Occup = 1
    1       0.159066604302
    2      -0.324259958655
    3      -0.383237262476
    4       0.127275402027
    5      -0.000843926813
    6       0.000000000000
    7       0.076623274511
    8      -0.000509122642
    9       0.000000000000
   10       0.036772889398
   11      -0.073825365636
   12       0.010852104827
   13      -0.034009134194
   14       0.000226477144
   15       0.000000000000
   16       0.016419923942
   17      -0.000110372469
   18      -0.000000000000
   19       0.097081156336
   20      -0.195927750003
   21      -0.032717238686
   22      -0.020040427888
   23       0.104573847104
   24       0.000000000000
   25       0.011618475005
   26      -0.037589677622
   27      -0.000000000000
   28      -0.029421579769
   29       0.003451571095
   30       0.046694658817
   31      -0.087763930880
   32      -0.072019827310
   33      -0.034817367332
   34      -0.028228800211
   35       0.000000000000
   36      -0.006620203993
   37      -0.035391986769
   38       0.000000000000
   39      -0.014631399447
   40      -0.008993915202
   41       0.097082197499
   42      -0.195929590139
   43      -0.032720175887
   44      -0.021429861138
   45      -0.104299811111
   46       0.000000000000
   47       0.012118233114
   48       0.037432041215
   49       0.000000000000
   50      -0.029421750237
   51       0.003451459993
   52      -0.010562054410
   53       0.003614936543
   54       0.046694793555
   55      -0.087763928921
   56      -0.072019752781
   57      -0.034440109377
   58       0.028688120572
   59       0.000000000000
   60      -0.006152149196
   61       0.035477063992
   62       0.000000000000
   63      -0.014631390333
   64      -0.008993109712
Sym  = A
Ene  =  -1.09879444
Spin = Alpha
Occup = 1
    1      -0.087130170315
    2       0.181497734414
    3       0.242923423504
    4      -0.036109395003
    5       0.000239148548
    6       0.000000000000
    7      -0.034961792594
    8       0.000232552900
    9       0.000000000000
   10       0.145410094767
   11      -0.290701280342
   12      -0.217531599595
   13      -0.071887814779
   14       0.000481589830
   15       0.000000000000
   16      -0.015305710260
   17       0.000101223927
   18      -0.000000000000
   19      -0.003243119411
   20       0.009105154768
   21      -0.026365026805
   22       0.101279750782
   23      -0.055630268586
   24       0.000000000000
   25       0.008166654221
   26       0.025742769578
   27      -0.000000000000
   28       0.003211412199
   29      -0.005783655452
   30       0.104803112651
   31      -0.208890453868
   32      -0.124899380684
   33       0.029202254033
   34      -0.077946114314
   35       0.000000000000
   36       0.002444349943
   37       0.008149715339
   38      -0.000000000000
   39      -0.048623599016
   40      -0.004773385307
   41      -0.003242399308
   42       0.009103929153
   43      -0.026366547986
   44       0.102012690691
   45       0.054281606488
   46       0.000000000000
   47       0.007825212641
   48      -0.025850607672
   49       0.000000000000
   50       0.003210622109
   51      -0.005784750379
   52      -0.069910050318
   53      -0.012894757179
   54       0.104798993147
   55      -0.208882016857
   56      -0.124895209625
   57       0.030235134189
   58       0.077547644747
   59       0.000000000000
   60       0.002336806561
   61      -0.008179760054
   62       0.000000000000
   63      -0.048624425692
   64      -0.004772806880
Sym  = A
Ene  =  -1.04202660
Spin = Alpha
Occup = 1
    1      -0.000001355323
    2       0.000002991764
    3       0.000003505479
    4      -0.000975081900
    5      -0.146726518004
    6      -0.000000000000
    7      -0.000296284819
    8      -0.044601839049
    9      -0.000000000000
   10       0.000000215614
   11      -0.000000424365
   12      -0.000000007895
   13      -0.000735989740
   14      -0.110901926470
   15       0.000000000000
   16      -0.000002000236
   17      -0.000306307337
   18      -0.000000000000
   19       0.116537795052
   20      -0.243033794799
   21      -0.169438135764
   22       0.051712838115
   23       0.006030602973
   24      -0.000000000000
   25       0.020856096726
   26      -0.008690971456
   27      -0.000000000000
   28      -0.067056667331
   29      -0.014224290656
   30      -0.107248979959
   31       0.216601923701
   32       0.151759111330
   33       0.067733901214
   34       0.001388912545
   35       0.000000000000
   36      -0.008443698355
   37      -0.001443958251
   38       0.000000000000
   39      -0.061382188226
   40      -0.009693820334
   41      -0.116536113727
   42       0.243030555077
   43       0.169434322426
   44      -0.051622165821
   45       0.006718062110
   46      -0.000000000000
   47      -0.020969493066
   48      -0.008413817753
   49      -0.000000000000
   50       0.067056234718
   51       0.014224271045
   52      -0.000001122123
   53      -0.000000465333
   54       0.107252101587
   55      -0.216608025557
   56      -0.151763159365
   57      -0.067712279928
   58       0.002288205887
   59       0.000000000000
   60       0.008425661156
   61      -0.001554942566
   62       0.000000000000
   63       0.061381302253
   64       0.009693764560
Sym  = A
Ene  =  -0.86065533
Spin = Alpha
Occup = 1
    1       0.070609863997
    2      -0.151893366746
    3      -0.216748812909
    4       0.002641995708
    5       0.000512415069
    6       0.000000000000
    7       0.011335904876
    8       0.000091232235
    9       0.000000000000
   10       0.114572662142
   11      -0.236911577671
   12      -0.193317981172
   13       0.061048962879
   14      -0.000805773669
   15       0.000000000000
   16       0.056785911656
   17      -0.000466545811
   18      -0.000000000000
   19      -0.070364794385
   20       0.144909895391
   21       0.163914381639
   22      -0.128217300847
   23       0.122770919376
   24       0.000000000000
   25      -0.028267314770
   26       0.015882342744
   27      -0.000000000000
   28       0.074190451166
   29       0.030023775273
   30      -0.045550628926
   31       0.093724067169
   32       0.057217795051
   33       0.165299078715
   34      -0.112285878241
   35       0.000000000000
   36       0.017198451999
   37      -0.044452817678
   38      -0.000000000000
   39       0.046300874722
   40       0.011457697253
   41      -0.070045515199
   42       0.144215934764
   43       0.163325471143
   44      -0.130445843722
   45      -0.121233871113
   46       0.000000000000
   47      -0.028554113937
   48      -0.015445215917
   49       0.000000000000
   50       0.073855586229
   51       0.029914697069
   52      -0.123519961389
   53      -0.035501324155
   54      -0.045176649958
   55       0.092974785914
   56       0.056476771091
   57       0.167133157514
   58       0.110077846048
   59       0.000000000000
   60       0.017852037710
   61       0.044148968410
   62       0.000000000000
   63       0.046690526725
   64       0.011595278903
Sym  = A
Ene  =  -0.86034164
Spin = Alpha
Occup = 1
    1       0.000143229635
    2      -0.000307884316
    3      -0.000441007839
    4      -0.001743298094
    5      -0.263168099992
    6       0.000000000000
    7      -0.000529801184
    8      -0.083313269319
    9       0.000000000000
   10       0.000231054250
   11      -0.000478053234
   12      -0.000389900802
   13       0.001438297846
   14       0.198446067564
   15       0.000000000000
   16       0.000398983376
   17       0.042871374165
   18       0.000000000000
   19       0.079209594581
   20      -0.172157362510
   21      -0.146028075818
   22      -0.151153793384
   23       0.045308109876
   24       0.000000000000
   25      -0.019315659562
   26      -0.015095441607
   27       0.000000000000
   28      -0.083638149982
   29      -0.027418492374
   30       0.092649265376
   31      -0.185656633344
   32      -0.184258763860
   33       0.088953875166
   34      -0.002274151658
   35      -0.000000000000
   36       0.016727324548
   37       0.016751015718
   38      -0.000000000000
   39       0.095137921622
   40       0.033431903933
   41      -0.079492762953
   42       0.172740691181
   43       0.146691084470
   44       0.151215625925
   45       0.042805889221
   46       0.000000000000
   47       0.018996325623
   48      -0.015413171690
   49       0.000000000000
   50       0.083936383790
   51       0.027539754397
   52      -0.000245902287
   53      -0.000069997470
   54      -0.092833283320
   55       0.186035208431
   56       0.184489786720
   57      -0.088305826394
   58      -0.000644752342
   59       0.000000000000
   60      -0.016435306090
   61       0.017149817090
   62      -0.000000000000
   63      -0.094945680316
   64      -0.033383150265
Sym  = A
Ene  =  -0.72632018
Spin = Alpha
Occup = 1
    1       0.019912499989
    2      -0.044996078270
    3      -0.078767723600
    4      -0.138280518392
    5       0.000908856776
    6      -0.000000000000
    7      -0.054508593779
    8       0.000359116776
    9      -0.000000000000
   10       0.023398636503
   11      -0.047884444936
   12      -0.056458452470
   13       0.233521666543
   14      -0.001561521879
   15      -0.000000000000
   16       0.103651181561
   17      -0.000693086416
   18      -0.000000000000
   19       0.020832834874
   20      -0.042111257030
   21      -0.055581383479
   22      -0.140340585012
   23      -0.158381122920
   24      -0.000000000000
   25      -0.065363359580
   26      -0.077468554828
   27      -0.000000000000
   28      -0.123146344551
   29      -0.051839510030
   30      -0.002128124076
   31       0.005725954037
   32      -0.035737162631
   33       0.098082437299
   34       0.155352207334
   35      -0.000000000000
   36       0.027120198400
   37       0.045407447980
   38      -0.000000000000
   39      -0.093270531135
   40      -0.055836482806
   41       0.020832041990
   42      -0.042109253781
   43      -0.055575060175
   44      -0.138207119135
   45       0.160240462898
   46      -0.000000000000
   47      -0.064326086869
   48       0.078335060493
   49      -0.000000000000
   50      -0.123144763297
   51      -0.051837822489
   52      -0.145577182157
   53      -0.074080700122
   54      -0.002129503810
   55       0.005728292639
   56      -0.035728573847
   57       0.096026952331
   58      -0.156630687517
   59      -0.000000000000
   60       0.026521856795
   61      -0.045763388445
   62       0.000000000000
   63      -0.093272240662
   64      -0.055838666124
Sym  = A
Ene  =  -0.66480151
Spin = Alpha
Occup = 1
    1      -0.000004518407
    2       0.000010237724
    3       0.000013423776
    4       0.001921269175
    5       0.290967104197
    6      -0.000000000000
    7       0.000710514696
    8       0.107505256217
    9      -0.000000000000
   10       0.000008163120
   11      -0.000017781123
   12      -0.000011030299
   13       0.001816043759
   14       0.272735820790
   15      -0.000000000000
   16       0.000626290205
   17       0.092558849225
   18      -0.000000000000
   19       0.014373483023
   20      -0.023750416644
   21      -0.022052972647
   22       0.220073193787
   23      -0.176244691584
   24      -0.000000000000
   25       0.048166224971
   26      -0.067810298321
   27      -0.000000000000
   28      -0.032723578900
   29      -0.011822941218
   30       0.008565298209
   31      -0.020944892084
   32      -0.001212747582
   33       0.244421952380
   34      -0.108593038054
   35      -0.000000000000
   36       0.087092578972
   37      -0.012054129154
   38       0.000000000000
   39       0.021429218058
   40       0.003912902464
   41      -0.014359837064
   42       0.023722102388
   43       0.022028412544
   44      -0.222416690765
   45      -0.173257958574
   46      -0.000000000000
   47      -0.049081416750
   48      -0.067138328197
   49      -0.000000000000
   50       0.032681407357
   51       0.011802973196
   52      -0.000007922187
   53      -0.000001228214
   54      -0.008575942676
   55       0.020966974931
   56       0.001227247479
   57      -0.245855608602
   58      -0.105299624943
   59      -0.000000000000
   60      -0.087260986733
   61      -0.010869484250
   62      -0.000000000000
   63      -0.021387350692
   64      -0.003893434514
Sym  = A
Ene  =  -0.65091976
Spin = Alpha
Occup = 1
    1      -0.044486330893
    2       0.104045134254
    3       0.116667029856
    4      -0.035873345417
    5       0.000203026668
    6       0.000000000000
    7       0.003782681111
    8      -0.000038574143
    9       0.000000000000
   10       0.055541166120
   11      -0.120107797952
   12      -0.055083062857
   13      -0.004965622247
   14      -0.000000270167
   15       0.000000000000
   16       0.074277553795
   17      -0.000507806641
   18       0.000000000000
   19       0.051382589758
   20      -0.104994192413
   21      -0.098068071679
   22      -0.043118493838
   23      -0.140067155216
   24       0.000000000000
   25      -0.042871397402
   26      -0.085595664541
   27       0.000000000000
   28      -0.137642673704
   29      -0.068691986345
   30      -0.051648055382
   31       0.108419240943
   32       0.081225362576
   33      -0.096581981640
   34      -0.195674008322