[Molden Format]
[Atoms] AU
   N    1    7   2.66213152  -0.01745909   0.00000000 
   C    2    6  -2.61652819   0.01758825   0.00000000 
   C    3    6   1.36419663   2.13770502   0.00000000 
   H    4    1   2.48371108   3.86156074   0.00000000 
   C    5    6  -1.29008658  -2.24565691   0.00000000 
   H    6    1  -2.20821495   4.07992940   0.00000000 
   C    7    6   1.33567980  -2.15517486   0.00000000 
   H    8    1   2.43217966  -3.89376330   0.00000000 
   H    9    1  -4.66738323   0.03126762   0.00000000 
   C   10    6  -1.26011693   2.26303903   0.00000000 
   H   11    1  -2.26212378  -4.04985420   0.00000000 
[GTO]
    1     0
 s     6     0
   4173.511000000000       0.001834800000 
    627.457900000000       0.013995000000 
    142.902100000000       0.068587000000 
     40.234330000000       0.232241000000 
     12.820210000000       0.469070000000 
      4.390437000000       0.360455000000 
 s     3     0
     11.626358000000      -0.114961000000 
      2.716280000000      -0.169118000000 
      0.772218000000       1.145852000000 
 s     1     0
      0.212031300000       1.000000000000 
 p     3     0
     11.626358000000       0.067580000000 
      2.716280000000       0.323907000000 
      0.772218000000       0.740895000000 
 p     1     0
      0.212031300000       1.000000000000 

    2     0
 s     6     0
   3047.524900000000       0.001834700000 
    457.369510000000       0.014037300000 
    103.948690000000       0.068842600000 
     29.210155000000       0.232184400000 
      9.286663000000       0.467941300000 
      3.163927000000       0.362312000000 
 s     3     0
      7.868272400000      -0.119332400000 
      1.881288500000      -0.160854200000 
      0.544249300000       1.143456400000 
 s     1     0
      0.168714400000       1.000000000000 
 p     3     0
      7.868272400000       0.068999100000 
      1.881288500000       0.316424000000 
      0.544249300000       0.744308300000 
 p     1     0
      0.168714400000       1.000000000000 

    3     0
 s     6     0
   3047.524900000000       0.001834700000 
    457.369510000000       0.014037300000 
    103.948690000000       0.068842600000 
     29.210155000000       0.232184400000 
      9.286663000000       0.467941300000 
      3.163927000000       0.362312000000 
 s     3     0
      7.868272400000      -0.119332400000 
      1.881288500000      -0.160854200000 
      0.544249300000       1.143456400000 
 s     1     0
      0.168714400000       1.000000000000 
 p     3     0
      7.868272400000       0.068999100000 
      1.881288500000       0.316424000000 
      0.544249300000       0.744308300000 
 p     1     0
      0.168714400000       1.000000000000 

    4     0
 s     3     0
     18.731137000000       0.033494600000 
      2.825393700000       0.234726950000 
      0.640121700000       0.813757330000 
 s     1     0
      0.161277800000       1.000000000000 

    5     0
 s     6     0
   3047.524900000000       0.001834700000 
    457.369510000000       0.014037300000 
    103.948690000000       0.068842600000 
     29.210155000000       0.232184400000 
      9.286663000000       0.467941300000 
      3.163927000000       0.362312000000 
 s     3     0
      7.868272400000      -0.119332400000 
      1.881288500000      -0.160854200000 
      0.544249300000       1.143456400000 
 s     1     0
      0.168714400000       1.000000000000 
 p     3     0
      7.868272400000       0.068999100000 
      1.881288500000       0.316424000000 
      0.544249300000       0.744308300000 
 p     1     0
      0.168714400000       1.000000000000 

    6     0
 s     3     0
     18.731137000000       0.033494600000 
      2.825393700000       0.234726950000 
      0.640121700000       0.813757330000 
 s     1     0
      0.161277800000       1.000000000000 

    7     0
 s     6     0
   3047.524900000000       0.001834700000 
    457.369510000000       0.014037300000 
    103.948690000000       0.068842600000 
     29.210155000000       0.232184400000 
      9.286663000000       0.467941300000 
      3.163927000000       0.362312000000 
 s     3     0
      7.868272400000      -0.119332400000 
      1.881288500000      -0.160854200000 
      0.544249300000       1.143456400000 
 s     1     0
      0.168714400000       1.000000000000 
 p     3     0
      7.868272400000       0.068999100000 
      1.881288500000       0.316424000000 
      0.544249300000       0.744308300000 
 p     1     0
      0.168714400000       1.000000000000 

    8     0
 s     3     0
     18.731137000000       0.033494600000 
      2.825393700000       0.234726950000 
      0.640121700000       0.813757330000 
 s     1     0
      0.161277800000       1.000000000000 

    9     0
 s     3     0
     18.731137000000       0.033494600000 
      2.825393700000       0.234726950000 
      0.640121700000       0.813757330000 
 s     1     0
      0.161277800000       1.000000000000 

   10     0
 s     6     0
   3047.524900000000       0.001834700000 
    457.369510000000       0.014037300000 
    103.948690000000       0.068842600000 
     29.210155000000       0.232184400000 
      9.286663000000       0.467941300000 
      3.163927000000       0.362312000000 
 s     3     0
      7.868272400000      -0.119332400000 
      1.881288500000      -0.160854200000 
      0.544249300000       1.143456400000 
 s     1     0
      0.168714400000       1.000000000000 
 p     3     0
      7.868272400000       0.068999100000 
      1.881288500000       0.316424000000 
      0.544249300000       0.744308300000 
 p     1     0
      0.168714400000       1.000000000000 

   11     0
 s     3     0
     18.731137000000       0.033494600000 
      2.825393700000       0.234726950000 
      0.640121700000       0.813757330000 
 s     1     0
      0.161277800000       1.000000000000 

[5D]
[7F]
[9G]
[MO]
Sym  = A
Ene  = -15.57613513
Spin = Alpha
Occup = 1
    1       0.996227946282
    2       0.025088883996
    3      -0.023571770512
    4      -0.002781545181
    5       0.000018464960
    6       0.000000000000
    7       0.007839988891
    8      -0.000052001996
    9      -0.000000000000
   10      -0.000058331095
   11      -0.000462299365
   12       0.008704854943
   13      -0.000029912806
   14       0.000000196198
   15      -0.000000000000
   16       0.004725428847
   17      -0.000031655466
   18       0.000000000000
   19       0.000071262835
   20      -0.000422567997
   21       0.011366006900
   22       0.000015024787
   23      -0.000013485333
   24      -0.000000000000
   25      -0.001447893541
   26      -0.007001566768
   27       0.000000000000
   28       0.000128791689
   29       0.001487471549
   30       0.000081646898
   31       0.000573599717
   32      -0.008002846429
   33      -0.000155677249
   34       0.000075426866
   35       0.000000000000
   36      -0.002140479616
   37      -0.005465386360
   38      -0.000000000000
   39      -0.000256238749
   40      -0.001448102427
   41       0.000071268051
   42      -0.000422554114
   43       0.011365869308
   44       0.000015203625
   45       0.000013269364
   46      -0.000000000000
   47      -0.001354499173
   48       0.007020321727
   49       0.000000000000
   50       0.000128797871
   51       0.001487473046
   52       0.000092093178
   53       0.001103531675
   54       0.000081644338
   55       0.000573585238
   56      -0.008002680116
   57      -0.000156649858
   58      -0.000073355456
   59      -0.000000000000
   60      -0.002068137672
   61       0.005493063286
   62      -0.000000000000
   63      -0.000256240930
   64      -0.001448094505
Sym  = A
Ene  = -11.28009051
Spin = Alpha
Occup = 1
    1       0.000003280796
    2      -0.000001147046
    3       0.000002460139
    4       0.000000641444
    5       0.000053646394
    6       0.000000000000
    7      -0.000013756889
    8      -0.000837795156
    9      -0.000000000000
   10      -0.000005209167
   11       0.000003588682
   12      -0.000027806769
   13      -0.000000834554
   14      -0.000206613975
   15      -0.000000000000
   16      -0.000013362951
   17       0.000731190627
   18       0.000000000000
   19       0.698131366605
   20       0.017711208728
   21      -0.011335984312
   22      -0.000070570017
   23      -0.000695925086
   24       0.000000000000
   25       0.003738373691
   26       0.001743199050
   27      -0.000000000000
   28      -0.000365105306
   29       0.000399170859
   30      -0.014848678163
   31       0.000204772037
   32      -0.005330679856
   33       0.000082842509
   34      -0.000020451147
   35      -0.000000000000
   36      -0.003056765209
   37      -0.000458573066
   38       0.000000000000
   39      -0.000088922550
   40       0.000285365704
   41      -0.710337633637
   42      -0.018006516581
   43       0.011463113689
   44       0.000061381867
   45      -0.000705050168
   46       0.000000000000
   47      -0.003717609288
   48       0.001764455096
   49      -0.000000000000
   50       0.000365124284
   51      -0.000437860601
   52      -0.000000871037
   53      -0.000006825871
   54       0.014602440594
   55      -0.000204426778
   56       0.005320612719
   57      -0.000079685393
   58      -0.000019260535
   59       0.000000000000
   60       0.003034871168
   61      -0.000531312187
   62       0.000000000000
   63       0.000092445760
   64      -0.000276090262
Sym  = A
Ene  = -11.28005922
Spin = Alpha
Occup = 1
    1      -0.000377416981
    2       0.000131846571
    3      -0.000275828849
    4      -0.000032811743
    5       0.000000678541
    6       0.000000000000
    7       0.000941603562
    8      -0.000013457661
    9       0.000000000000
   10       0.000599282626
   11      -0.000412774601
   12       0.003200322258
   13      -0.000062528402
   14      -0.000001377964
   15      -0.000000000000
   16       0.002096464028
   17      -0.000007739139
   18       0.000000000000
   19       0.710256762477
   20       0.017191189262
   21      -0.007445547443
   22      -0.000012036803
   23      -0.000482036723
   24      -0.000000000000
   25       0.000174267892
   26      -0.001610024955
   27       0.000000000000
   28      -0.000004769241
   29       0.002232645552
   30       0.014131828587
   31      -0.000017194099
   32       0.000548336677
   33      -0.000197216711
   34       0.000007247301
   35       0.000000000000
   36       0.000851288976
   37      -0.001868053000
   38      -0.000000000000
   39      -0.000203550938
   40      -0.000529730519
   41       0.698049125518
   42       0.016881609737
   43      -0.007247923805
   44      -0.000004544012
   45       0.000470000188
   46      -0.000000000000
   47       0.000131317790
   48       0.001638534344
   49       0.000000000000
   50       0.000001565583
   51       0.002225410730
   52       0.000100084592
   53       0.000786169687
   54       0.014388041818
   55      -0.000020738055
   56       0.000640832206
   57      -0.000198708984
   58      -0.000004953658
   59       0.000000000000
   60       0.000928602031
   61       0.001847455222
   62      -0.000000000000
   63      -0.000201983584
   64      -0.000534639947
Sym  = A
Ene  = -11.26562740
Spin = Alpha
Occup = 1
    1      -0.000006525737
    2      -0.000165750073
    3       0.001062342955
    4       0.000035907072
    5      -0.000000237782
    6      -0.000000000000
    7      -0.000376943130
    8       0.000002503426
    9       0.000000000000
   10       0.994466833907
   11       0.025137645238
   12      -0.019867250805
   13       0.000441119188
   14      -0.000002947566
   15       0.000000000000
   16      -0.004748471472
   17       0.000031662452
   18       0.000000000000
   19      -0.001321594865
   20      -0.000199631801
   21      -0.001658570212
   22       0.000154325869
   23       0.000021149731
   24      -0.000000000000
   25       0.000388445768
   26       0.000506993815
   27       0.000000000000
   28       0.000023208512
   29       0.000102514830
   30       0.041070633384
   31       0.000029684845
   32       0.007405709090
   33       0.000044751311
   34      -0.000197062414
   35       0.000000000000
   36      -0.000003086071
   37       0.003936246626
   38       0.000000000000
   39      -0.000052002711
   40       0.000767673230
   41      -0.001321653094
   42      -0.000199641502
   43      -0.001658438966
   44       0.000154026921
   45      -0.000023197190
   46       0.000000000000
   47       0.000381612358
   48      -0.000512090585
   49      -0.000000000000
   50       0.000023209434
   51       0.000102524555
   52      -0.000340687502
   53       0.001277173070
   54       0.041066453713
   55       0.000029596856
   56       0.007405561779
   57       0.000047360763
   58       0.000196433475
   59       0.000000000000
   60      -0.000055214088
   61      -0.003935702585
   62      -0.000000000000
   63      -0.000052010990
   64       0.000767731776
Sym  = A
Ene  = -11.25109222
Spin = Alpha
Occup = 1
    1      -0.000000107359
    2      -0.000000874201
    3       0.000008499640
    4      -0.000000430633
    5      -0.000058645107
    6       0.000000000000
    7      -0.000008226143
    8      -0.000687952572
    9      -0.000000000000
   10       0.000106786640
   11       0.000005391976
   12      -0.000026675302
   13      -0.000001030227
   14      -0.000225217572
   15      -0.000000000000
   16       0.000007196850
   17       0.002851932131
   18       0.000000000000
   19      -0.014998420994
   20      -0.000945288796
   21       0.005100935380
   22       0.000136925203
   23      -0.000003901409
   24      -0.000000000000
   25      -0.001718918395
   26      -0.001085262931
   27      -0.000000000000
   28      -0.000062169242
   29       0.000219091343
   30      -0.705486317096
   31      -0.017982390396
   32       0.012629140200
   33      -0.000112785403
   34      -0.000412618821
   35       0.000000000000
   36       0.001150495207
   37       0.002522180634
   38      -0.000000000000
   39      -0.000259873911
   40       0.000891240576
   41       0.015048592154
   42       0.000948759209
   43      -0.005130139490
   44      -0.000137705032
   45      -0.000002184361
   46       0.000000000000
   47       0.001715939446
   48      -0.001117201040
   49      -0.000000000000
   50       0.000062099753
   51      -0.000221723929
   52       0.000000013177
   53      -0.000002100106
   54       0.703002089543
   55       0.017918253546
   56      -0.012563996521
   57       0.000106409299
   58      -0.000413074320
   59      -0.000000000000
   60      -0.001107880350
   61       0.002518362458
   62       0.000000000000
   63       0.000260916095
   64      -0.000892571139
Sym  = A
Ene  = -11.25103432
Spin = Alpha
Occup = 1
    1      -0.000060640088
    2      -0.000495373826
    3       0.004813493070
    4      -0.000021862910
    5       0.000000248713
    6      -0.000000000000
    7      -0.002072824029
    8       0.000014951361
    9      -0.000000000000
   10       0.058752306244
   11       0.003001507072
   12      -0.014973996528
   13       0.000257201686
   14      -0.000001317003
   15       0.000000000000
   16      -0.006622481672
   17       0.000039192267
   18      -0.000000000000
   19       0.014502641315
   20       0.000996824265
   21      -0.008309671005
   22      -0.000211420013
   23       0.000030327808
   24      -0.000000000000
   25       0.003341505210
   26       0.002575605714
   27       0.000000000000
   28      -0.000019833673
   29      -0.000757137333
   30      -0.701837286773
   31      -0.018110801125
   32       0.018393955348
   33      -0.000253853497
   34      -0.000275955412
   35       0.000000000000
   36       0.002641186002
   37       0.005279657929
   38       0.000000000000
   39       0.000295634043
   40      -0.000379282537
   41       0.014448580367
   42       0.000993436173
   43      -0.008291433684
   44      -0.000211318342
   45      -0.000027511784
   46      -0.000000000000
   47       0.003300808622
   48      -0.002615892515
   49      -0.000000000000
   50      -0.000020059127
   51      -0.000756345888
   52       0.000004446122
   53      -0.001177922251
   54      -0.704325831442
   55      -0.018174208039
   56       0.018438231832
   57      -0.000250543079
   58       0.000280742463
   59       0.000000000000
   60       0.002574996943
   61      -0.005322927983
   62      -0.000000000000
   63       0.000294718187
   64      -0.000376082199
Sym  = A
Ene  =  -1.27891491
Spin = Alpha
Occup = 1
    1       0.159066604408
    2      -0.324259958921
    3      -0.383237262753
    4       0.127275402079
    5      -0.000843926813
    6      -0.000000000000
    7       0.076623274547
    8      -0.000509122643
    9      -0.000000000000
   10       0.036772889270
   11      -0.073825365377
   12       0.010852105008
   13      -0.034009134103
   14       0.000226477143
   15       0.000000000000
   16       0.016419923966
   17      -0.000110372469
   18      -0.000000000000
   19       0.097081156322
   20      -0.195927749983
   21      -0.032717238613
   22      -0.020040428007
   23       0.104573847175
   24      -0.000000000000
   25       0.011618474992
   26      -0.037589677655
   27      -0.000000000000
   28      -0.029421579755
   29       0.003451571110
   30       0.046694658709
   31      -0.087763930660
   32      -0.072019827192
   33      -0.034817367323
   34      -0.028228800132
   35       0.000000000000
   36      -0.006620203990
   37      -0.035391986775
   38       0.000000000000
   39      -0.014631399405
   40      -0.008993915201
   41       0.097082197485
   42      -0.195929590118
   43      -0.032720175813
   44      -0.021429861258
   45      -0.104299811181
   46      -0.000000000000
   47       0.012118233102
   48       0.037432041247
   49      -0.000000000000
   50      -0.029421750223
   51       0.003451460008
   52      -0.010562054362
   53       0.003614936550
   54       0.046694793447
   55      -0.087763928700
   56      -0.072019752663
   57      -0.034440109369
   58       0.028688120493
   59      -0.000000000000
   60      -0.006152149193
   61       0.035477063998
   62       0.000000000000
   63      -0.014631390291
   64      -0.008993109711
Sym  = A
Ene  =  -1.09879443
Spin = Alpha
Occup = 1
    1      -0.087130170199
    2       0.181497734212
    3       0.242923423246
    4      -0.036109394843
    5       0.000239148547
    6      -0.000000000000
    7      -0.034961792504
    8       0.000232552900
    9      -0.000000000000
   10       0.145410094751
   11      -0.290701280286
   12      -0.217531599503
   13      -0.071887814815
   14       0.000481589830
   15      -0.000000000000
   16      -0.015305710256
   17       0.000101223927
   18      -0.000000000000
   19      -0.003243119277
   20       0.009105154496
   21      -0.026365026928
   22       0.101279750838
   23      -0.055630268516
   24      -0.000000000000
   25       0.008166654259
   26       0.025742769553
   27      -0.000000000000
   28       0.003211412142
   29      -0.005783655466
   30       0.104803112713
   31      -0.208890453975
   32      -0.124899380767
   33       0.029202253907
   34      -0.077946114299
   35       0.000000000000
   36       0.002444349926
   37       0.008149715312
   38      -0.000000000000
   39      -0.048623599039
   40      -0.004773385320
   41      -0.003242399174
   42       0.009103928882
   43      -0.026366548110
   44       0.102012690746
   45       0.054281606417
   46      -0.000000000000
   47       0.007825212679
   48      -0.025850607647
   49      -0.000000000000
   50       0.003210622051
   51      -0.005784750393
   52      -0.069910050292
   53      -0.012894757173
   54       0.104798993209
   55      -0.208882016963
   56      -0.124895209709
   57       0.030235134062
   58       0.077547644734
   59       0.000000000000
   60       0.002336806544
   61      -0.008179760027
   62      -0.000000000000
   63      -0.048624425715
   64      -0.004772806893
Sym  = A
Ene  =  -1.04202660
Spin = Alpha
Occup = 1
    1      -0.000001355323
    2       0.000002991764
    3       0.000003505480
    4      -0.000975081902
    5      -0.146726518292
    6       0.000000000000
    7      -0.000296284820
    8      -0.044601839135
    9       0.000000000000
   10       0.000000215614
   11      -0.000000424365
   12      -0.000000007895
   13      -0.000735989739
   14      -0.110901926307
   15       0.000000000000
   16      -0.000002000236
   17      -0.000306307311
   18       0.000000000000
   19       0.116537795116
   20      -0.243033794946
   21      -0.169438135879
   22       0.051712837977
   23       0.006030603047
   24       0.000000000000
   25       0.020856096717
   26      -0.008690971449
   27       0.000000000000
   28      -0.067056667383
   29      -0.014224290671
   30      -0.107248979882
   31       0.216601923536
   32       0.151759111175
   33       0.067733901260
   34       0.001388912534
   35       0.000000000000
   36      -0.008443698353
   37      -0.001443958254
   38       0.000000000000
   39      -0.061382188162
   40      -0.009693820314
   41      -0.116536113791
   42       0.243030555224
   43       0.169434322541
   44      -0.051622165682
   45       0.006718062182
   46       0.000000000000
   47      -0.020969493057
   48      -0.008413817746
   49       0.000000000000
   50       0.067056234770
   51       0.014224271060
   52      -0.000001122123
   53      -0.000000465333
   54       0.107252101510
   55      -0.216608025392
   56      -0.151763159210
   57      -0.067712279974
   58       0.002288205876
   59       0.000000000000
   60       0.008425661153
   61      -0.001554942568
   62       0.000000000000
   63       0.061381302189
   64       0.009693764540
Sym  = A
Ene  =  -0.86065533
Spin = Alpha
Occup = 1
    1       0.070609863959
    2      -0.151893366699
    3      -0.216748812811
    4       0.002641995628
    5       0.000512415243
    6       0.000000000000
    7       0.011335904807
    8       0.000091232290
    9       0.000000000000
   10       0.114572662177
   11      -0.236911577717
   12      -0.193317981232
   13       0.061048962779
   14      -0.000805773799
   15       0.000000000000
   16       0.056785911595
   17      -0.000466545838
   18       0.000000000000
   19      -0.070364794486
   20       0.144909895608
   21       0.163914381816
   22      -0.128217300660
   23       0.122770919360
   24       0.000000000000
   25      -0.028267314746
   26       0.015882342796
   27       0.000000000000
   28       0.074190451300
   29       0.030023775326
   30      -0.045550628921
   31       0.093724067154
   32       0.057217795058
   33       0.165299078678
   34      -0.112285878230
   35       0.000000000000
   36       0.017198451994
   37      -0.044452817651
   38       0.000000000000
   39       0.046300874591
   40       0.011457697211
   41      -0.070045515196
   42       0.144215934756
   43       0.163325471129
   44      -0.130445843736
   45      -0.121233871157
   46       0.000000000000
   47      -0.028554113939
   48      -0.015445215950
   49       0.000000000000
   50       0.073855586253
   51       0.029914697086
   52      -0.123519961360
   53      -0.035501324146
   54      -0.045176649831
   55       0.092974785654
   56       0.056476770854
   57       0.167133157593
   58       0.110077846039
   59       0.000000000000
   60       0.017852037727
   61       0.044148968361
   62       0.000000000000
   63       0.046690526719
   64       0.011595278906
Sym  = A
Ene  =  -0.86034164
Spin = Alpha
Occup = 1
    1       0.000143229681
    2      -0.000307884416
    3      -0.000441007981
    4      -0.001743298094
    5      -0.263168100200
    6       0.000000000000
    7      -0.000529801177
    8      -0.083313269400
    9       0.000000000000
   10       0.000231054326
   11      -0.000478053390
   12      -0.000389900929
   13       0.001438297885
   14       0.198446067418
   15      -0.000000000000
   16       0.000398983414
   17       0.042871374096
   18       0.000000000000
   19       0.079209594420
   20      -0.172157362190
   21      -0.146028075510
   22      -0.151153793712
   23       0.045308110122
   24       0.000000000000
   25      -0.019315659636
   26      -0.015095441537
   27       0.000000000000
   28      -0.083638149833
   29      -0.027418492320
   30       0.092649265427
   31      -0.185656633428
   32      -0.184258763948
   33       0.088953874995
   34      -0.002274151661
   35       0.000000000000
   36       0.016727324489
   37       0.016751015681
   38       0.000000000000
   39       0.095137921672
   40       0.033431903944
   41      -0.079492762885
   42       0.172740691051
   43       0.146691084380
   44       0.151215626085
   45       0.042805889303
   46       0.000000000000
   47       0.018996325659
   48      -0.015413171642
   49       0.000000000000
   50       0.083936383738
   51       0.027539754383
   52      -0.000245902368
   53      -0.000069997493
   54      -0.092833283430
   55       0.186035208638
   56       0.184489786880
   57      -0.088305826004
   58      -0.000644752202
   59       0.000000000000
   60      -0.016435306008
   61       0.017149817111
   62       0.000000000000
   63      -0.094945680304
   64      -0.033383150262
Sym  = A
Ene  =  -0.72632018
Spin = Alpha
Occup = 1
    1       0.019912499998
    2      -0.044996078299
    3      -0.078767723635
    4      -0.138280518763
    5       0.000908856779
    6      -0.000000000000
    7      -0.054508593966
    8       0.000359116777
    9      -0.000000000000
   10       0.023398636574
   11      -0.047884445087
   12      -0.056458452560
   13       0.233521666228
   14      -0.001561521877
   15      -0.000000000000
   16       0.103651181475
   17      -0.000693086415
   18      -0.000000000000
   19       0.020832834873
   20      -0.042111257024
   21      -0.055581383460
   22      -0.140340585151
   23      -0.158381123114
   24      -0.000000000000
   25      -0.065363359729
   26      -0.077468554921
   27      -0.000000000000
   28      -0.123146344677
   29      -0.051839510073
   30      -0.002128124095
   31       0.005725954077
   32      -0.035737162672
   33       0.098082437324
   34       0.155352207070
   35       0.000000000000
   36       0.027120198334
   37       0.045407447851
   38       0.000000000000
   39      -0.093270530994
   40      -0.055836482741
   41       0.020832041988
   42      -0.042109253775
   43      -0.055575060156
   44      -0.138207119271
   45       0.160240463093
   46      -0.000000000000
   47      -0.064326087017
   48       0.078335060587
   49      -0.000000000000
   50      -0.123144763423
   51      -0.051837822532
   52      -0.145577182041
   53      -0.074080700029
   54      -0.002129503829
   55       0.005728292679
   56      -0.035728573889
   57       0.096026952360
   58      -0.156630687253
   59      -0.000000000000
   60       0.026521856731
   61      -0.045763388315
   62      -0.000000000000
   63      -0.093272240521
   64      -0.055838666059
Sym  = A
Ene  =  -0.66480151
Spin = Alpha
Occup = 1
    1      -0.000004518407
    2       0.000010237724
    3       0.000013423776
    4       0.001921269175
    5       0.290967104233
    6      -0.000000000000
    7       0.000710514696
    8       0.107505256276
    9      -0.000000000000
   10       0.000008163120
   11      -0.000017781123
   12      -0.000011030299
   13       0.001816043759
   14       0.272735820705
   15      -0.000000000000
   16       0.000626290205
   17       0.092558849173
   18      -0.000000000000
   19       0.014373483114
   20      -0.023750416834
   21      -0.022052972883
   22       0.220073193558
   23      -0.176244691820
   24      -0.000000000000
   25       0.048166224880
   26      -0.067810298477
   27      -0.000000000000
   28      -0.032723579188
   29      -0.011822941370
   30       0.008565298295
   31      -0.020944892259
   32      -0.001212747788
   33       0.244421952341
   34      -0.108593037897
   35      -0.000000000000
   36       0.087092578960
   37      -0.012054129035
   38      -0.000000000000
   39       0.021429218223
   40       0.003912902543
   41      -0.014359837155
   42       0.023722102578
   43       0.022028412779
   44      -0.222416690539
   45      -0.173257958813
   46      -0.000000000000
   47      -0.049081416660
   48      -0.067138328354
   49      -0.000000000000
   50       0.032681407645
   51       0.011802973348
   52      -0.000007922187
   53      -0.000001228214
   54      -0.008575942762
   55       0.020966975106
   56       0.001227247685
   57      -0.245855608561
   58      -0.105299624786
   59      -0.000000000000
   60      -0.087260986719
   61      -0.010869484131
   62      -0.000000000000
   63      -0.021387350857
   64      -0.003893434593
Sym  = A
Ene  =  -0.65091976
Spin = Alpha
Occup = 1
    1      -0.044486330873
    2       0.104045134232
    3       0.116667029853
    4      -0.035873345301
    5       0.000203026667
    6       0.000000000000
    7       0.003782681174
    8      -0.000038574144
    9       0.000000000000
   10       0.055541166140
   11      -0.120107797983
   12      -0.055083062852
   13      -0.004965622531
   14      -0.000000270165
   15       0.000000000000
   16       0.074277553660
   17      -0.000507806640
   18       0.000000000000
   19       0.051382589721
   20      -0.104994192339
   21      -0.098068071595
   22      -0.043118493857
   23      -0.140067155048
   24       0.000000000000
   25      -0.042871397401
   26      -0.085595664469
   27       0.000000000000
   28      -0.137642673613
   29      -0.068691986317
   30      -0.051648055392
   31       0.108419240956
   32       0.081225362612
   33      -0.096581981579
   34      -0.195674008505